<?xml version="1.0"?>

<!-- generated on 05/02/11 21:52:20 by SUMO dfrouter Version 0.12.3
<?xml version="1.0" encoding="iso-8859-1"?>

<configuration xmlns:xsi="http://www.w3.org/2001/XMLSchema-instance" xsi:noNamespaceSchemaLocation="http://sumo.sf.net/xsd/dfrouterConfiguration.xsd">

    <input>
        <net-file value="highway.net.xml"/>
        <detector-files value="highway.det.xml"/>
        <detector-flow-files value="highway.flo.cvs"/>
    </input>

    <output>
        <routes-output value="highway.rou.xml"/>
        <routes-for-all value="true"/>
        <detectors-output value="detectors-output.txt"/>
        <emitters-output value="highway.em.xml"/>
    </output>

    <processing>
        <highway-mode value="true"/>
        <all-end-follower value="true"/>
    </processing>

</configuration>
-->
   

<routes>
	<route id="highway_west" edges="4038599 48948855 48948854 4038597 24846365 24846372 4038595"/>
	<route id="highway_east" edges="59542444 4038596 24846356 24846349 4038598 48948852 48948853"/>
</routes>
